Periodic-Tools output

60 atoms
60 bonds
84 angles
96 dihedrals 
72 impropers

15 atom types
15 bond types
21 angle types
24 dihedral types
18 improper types

0 10.433 xlo xhi
0 7.458 ylo yhi
0 6.6477149082 zlo zhi
4.56670791402048e-16 -2.8629583476000002 6.185053154388253e-16 xy xz yz

Masses

1 14.007
2 12.011
3 14.007
4 1.008
5 1.008
6 14.007
7 12.011
8 14.007
9 1.008
10 1.008
11 14.007
12 12.011
13 14.007
14 1.008
15 1.008

Pair Coeffs

1 0.1529696248208879 3.1064696043035234
2 0.07362139711879302 3.1299127529414723
3 0.25095928002302686 3.0313576623713665
4 0.0 10.0
5 0.0 10.0
6 0.1529696248208879 3.1064696043035234
7 0.07362139711879302 3.1299127529414723
8 0.25095928002302686 3.0313576623713665
9 0.0 10.0
10 0.0 10.0
11 0.1529696248208879 3.1064696043035234
12 0.07362139711879302 3.1299127529414723
13 0.25095928002302686 3.0313576623713665
14 0.0 10.0
15 0.0 10.0

Bond Coeffs

1 382.4637925218106 1.336363691080481
2 382.4637925218106 1.336363691080481
3 382.4637925218106 1.336363691080481
4 382.4637925218106 1.336363691080481
5 382.4637925218106 1.336363691080481
6 382.4637925218106 1.336363691080481
7 421.4673433134157 1.3532297412533572
8 421.4673433134157 1.3532297412533572
9 421.4673433134157 1.3532297412533572
10 535.9581518459952 1.0039243846740824
11 535.9581518459952 1.0039243846740824
12 535.9581518459952 1.0039243846740824
13 535.9581518459952 1.0039243846740824
14 535.9581518459952 1.0039243846740824
15 535.9581518459952 1.0039243846740824

Angle Coeffs

1 147.33566262116312 113.78514609268603
2 147.33566262116312 113.78514609268603
3 147.33566262116312 113.78514609268603
4 74.8953228393672 116.8910708896811
5 74.8953228393672 116.8910708896811
6 74.8953228393672 116.8910708896811
7 74.8953228393672 116.8910708896811
8 74.8953228393672 116.8910708896811
9 74.8953228393672 116.8910708896811
10 83.48319337475343 126.21321899258834
11 83.48319337475343 126.21321899258834
12 83.48319337475343 126.21321899258834
13 36.28677371174013 118.5891018000474
14 36.28677371174013 118.5891018000474
15 36.28677371174013 118.5891018000474
16 36.28677371174013 118.5891018000474
17 36.28677371174013 118.5891018000474
18 36.28677371174013 118.5891018000474
19 23.479595764975866 120.42351422739685
20 23.479595764975866 120.42351422739685
21 23.479595764975866 120.42351422739685

Dihedral Coeffs

1 0.0 2.386186765364 0.0 0.0
2 0.0 2.386186765364 0.0 0.0
3 0.0 7.463739881192 0.0 0.0
4 0.0 7.463739881192 0.0 0.0
5 0.0 2.386186765364 0.0 0.0
6 0.0 2.386186765364 0.0 0.0
7 0.0 7.463739881192 0.0 0.0
8 0.0 7.463739881192 0.0 0.0
9 0.0 7.463739881192 0.0 0.0
10 0.0 7.463739881192 0.0 0.0
11 0.0 7.463739881192 0.0 0.0
12 0.0 7.463739881192 0.0 0.0
13 0.0 2.386186765364 0.0 0.0
14 0.0 2.386186765364 0.0 0.0
15 0.0 7.463739881192 0.0 0.0
16 0.0 2.386186765364 0.0 0.0
17 0.0 2.386186765364 0.0 0.0
18 0.0 7.463739881192 0.0 0.0
19 0.0 7.463739881192 0.0 0.0
20 0.0 7.463739881192 0.0 0.0
21 0.0 2.386186765364 0.0 0.0
22 0.0 2.386186765364 0.0 0.0
23 0.0 2.386186765364 0.0 0.0
24 0.0 2.386186765364 0.0 0.0

Improper Coeffs

1 0.3666666666666667 -1 2
2 0.3666666666666667 -1 2
3 0.3666666666666667 -1 2
4 0.3666666666666667 -1 2
5 0.3666666666666667 -1 2
6 0.3666666666666667 -1 2
7 0.3333333333333333 -1 2
8 0.3333333333333333 -1 2
9 0.3333333333333333 -1 2
10 0.3666666666666667 -1 2
11 0.3666666666666667 -1 2
12 0.3666666666666667 -1 2
13 0.3333333333333333 -1 2
14 0.3333333333333333 -1 2
15 0.3333333333333333 -1 2
16 0.3333333333333333 -1 2
17 0.3333333333333333 -1 2
18 0.3333333333333333 -1 2

Atoms

1 1 1 -0.676107 -0.3695602675 4.93540608 2.3273649893
2 1 2 0.69741 0.3645877035 3.82901178 2.0849228266
3 1 3 -0.715612 0.0722246611 2.7355944 2.8059339856
4 1 4 0.347154 0.534742557 1.8749412 2.5786486129
5 1 5 0.347154 -0.7941828197 2.7050166 3.3484539992
6 1 6 -0.676107 1.3739819141 3.74443806 1.1992477694
7 1 7 0.69741 1.5963424844 4.86492798 0.4842860311
8 1 8 -0.715612 -0.3304778549 4.832784 6.1773226013
9 1 9 0.347154 0.0140295917 5.7150654 5.8081085153
10 1 10 0.347154 0.2224003745 3.9915216 6.0607216818
11 1 11 -0.676107 0.9337585394 6.03299994 0.6574590044
12 1 12 0.69741 -0.0191310618 6.00421206 1.6020992929
13 1 13 -0.715612 -0.6572123923 7.18078614 1.8525851906
14 1 14 0.347154 8.8770109867 7.096287 2.3120752451
15 1 15 0.347157 9.780096506 0.380358 1.0702821002
16 2 1 -0.676107 2.7231019199 1.20640608 4.3203499188
17 2 2 0.69741 2.3726727142 2.27521206 5.0456156153
18 2 3 -0.715612 3.0107540447 3.45178614 4.7951297176
19 2 4 0.347154 3.0064451464 4.109358 5.5774328079
20 2 5 0.347154 3.9095306657 3.367287 4.3356396631
21 2 6 -0.676107 1.419783113 2.30399994 5.9902559037
22 2 7 0.69741 0.7571991681 1.13592798 6.1634288771
23 2 8 -0.715612 2.6840195073 1.103784 0.47039230689999995
24 2 9 0.347154 2.3395120607 1.9860654 0.8396063929
25 2 10 0.347154 2.1311412779 0.2625216 0.5869932264
26 2 11 -0.676107 0.9795597383 0.01543806 5.4484671387
27 2 12 0.69741 1.988953949 0.10001178 4.5627920815
28 2 13 -0.715612 2.2813169914 6.4645944 3.8417809226
29 2 14 0.347154 1.8187990955 5.6039412 4.0690662953
30 2 15 0.347157 3.1477244721 6.4340166 3.2992609089
31 3 1 -0.676107 7.9396019199 2.52259392 4.3203499188
32 3 2 0.69741 7.205453949 3.62898822 4.5627920815
33 3 3 -0.715612 7.4978169914 4.7224056 3.8417809226
34 3 4 0.347154 7.0352990955 5.5830588 4.0690662953
35 3 5 0.347154 8.3642244721 4.7529834 3.2992609089
36 3 6 -0.676107 6.1960597383 3.71356194 5.4484671387
37 3 7 0.69741 5.9736991681 2.59307202 6.1634288771
38 3 8 -0.715612 7.9005195073 2.625216 0.4703923068999999
39 3 9 0.347154 7.5560120607 1.7429346 0.8396063928999999
40 3 10 0.347154 7.3476412779 3.4664784 0.5869932263999998
41 3 11 -0.676107 6.636283113 1.42500006 5.9902559037
42 3 12 0.69741 7.5891727142 1.45378794 5.0456156153
43 3 13 -0.715612 8.2272540447 0.27721386 4.7951297176
44 3 14 0.347154 -1.3069693343 0.361713 4.3356396631
45 3 15 0.347157 -2.2100548536 7.077642 5.5774328079
46 4 1 -0.676107 4.8469397325 6.25159392 2.3273649893
47 4 2 0.69741 5.1973689382 5.18278794 1.6020992929
48 4 3 -0.715612 4.5592876077 4.00621386 1.8525851906
49 4 4 0.347154 4.563596506 3.348642 1.0702821002
50 4 5 0.347154 3.6605109867 4.090713 2.3120752451
51 4 6 -0.676107 6.1502585394 5.15400006 0.6574590043999999
52 4 7 0.69741 6.8128424844 6.32207202 0.48428603109999996
53 4 8 -0.715612 4.8860221451 6.354216 6.1773226013
54 4 9 0.347154 5.2305295917 5.4719346 5.8081085153
55 4 10 0.347154 5.4389003745 7.1954784 6.0607216818
56 4 11 -0.676107 6.5904819141 7.44256194 1.1992477694
57 4 12 0.69741 5.5810877035 7.35798822 2.0849228266
58 4 13 -0.715612 5.2887246611 0.9934056 2.8059339856
59 4 14 0.347154 5.751242557 1.8540588 2.5786486129
60 4 15 0.347157 4.4223171803 1.0239834 3.3484539992

Bonds

1 1 1 2
2 2 6 7
3 3 11 12
4 4 2 6
5 5 7 11
6 6 12 1
7 7 2 3
8 8 7 8
9 9 12 13
10 10 3 4
11 11 3 5
12 12 8 9
13 13 8 10
14 14 13 14
15 15 13 15
16 1 16 17
17 2 21 22
18 3 26 27
19 4 17 21
20 5 22 26
21 6 27 16
22 7 17 18
23 8 22 23
24 9 27 28
25 10 18 19
26 11 18 20
27 12 23 24
28 13 23 25
29 14 28 29
30 15 28 30
31 1 31 32
32 2 36 37
33 3 41 42
34 4 32 36
35 5 37 41
36 6 42 31
37 7 32 33
38 8 37 38
39 9 42 43
40 10 33 34
41 11 33 35
42 12 38 39
43 13 38 40
44 14 43 44
45 15 43 45
46 1 46 47
47 2 51 52
48 3 56 57
49 4 47 51
50 5 52 56
51 6 57 46
52 7 47 48
53 8 52 53
54 9 57 58
55 10 48 49
56 11 48 50
57 12 53 54
58 13 53 55
59 14 58 59
60 15 58 60

Angles

1 1 2 1 12
2 2 2 6 7
3 3 7 11 12
4 4 1 2 3
5 5 6 7 8
6 6 1 12 13
7 7 11 12 13
8 8 3 2 6
9 9 8 7 11
10 10 1 2 6
11 11 6 7 11
12 12 1 12 11
13 13 2 3 4
14 14 2 3 5
15 15 7 8 9
16 16 7 8 10
17 17 12 13 14
18 18 12 13 15
19 19 4 3 5
20 20 9 8 10
21 21 14 13 15
22 1 17 16 27
23 2 17 21 22
24 3 22 26 27
25 4 16 17 18
26 5 21 22 23
27 6 16 27 28
28 7 26 27 28
29 8 18 17 21
30 9 23 22 26
31 10 16 17 21
32 11 21 22 26
33 12 16 27 26
34 13 17 18 19
35 14 17 18 20
36 15 22 23 24
37 16 22 23 25
38 17 27 28 29
39 18 27 28 30
40 19 19 18 20
41 20 24 23 25
42 21 29 28 30
43 1 32 31 42
44 2 32 36 37
45 3 37 41 42
46 4 31 32 33
47 5 36 37 38
48 6 31 42 43
49 7 41 42 43
50 8 33 32 36
51 9 38 37 41
52 10 31 32 36
53 11 36 37 41
54 12 31 42 41
55 13 32 33 34
56 14 32 33 35
57 15 37 38 39
58 16 37 38 40
59 17 42 43 44
60 18 42 43 45
61 19 34 33 35
62 20 39 38 40
63 21 44 43 45
64 1 47 46 57
65 2 47 51 52
66 3 52 56 57
67 4 46 47 48
68 5 51 52 53
69 6 46 57 58
70 7 56 57 58
71 8 48 47 51
72 9 53 52 56
73 10 46 47 51
74 11 51 52 56
75 12 46 57 56
76 13 47 48 49
77 14 47 48 50
78 15 52 53 54
79 16 52 53 55
80 17 57 58 59
81 18 57 58 60
82 19 49 48 50
83 20 54 53 55
84 21 59 58 60

Dihedrals

1 1 1 2 3 4
2 2 1 2 3 5
3 3 1 2 6 7
4 4 1 12 11 7
5 5 1 12 13 14
6 6 1 12 13 15
7 7 2 1 12 11
8 8 2 1 12 13
9 9 2 6 7 8
10 10 2 6 7 11
11 11 3 2 1 12
12 12 3 2 6 7
13 13 4 3 2 6
14 14 5 3 2 6
15 15 6 2 1 12
16 16 6 7 8 9
17 17 6 7 8 10
18 18 6 7 11 12
19 19 7 11 12 13
20 20 8 7 11 12
21 21 9 8 7 11
22 22 10 8 7 11
23 23 11 12 13 14
24 24 11 12 13 15
25 1 16 17 18 19
26 2 16 17 18 20
27 3 16 17 21 22
28 4 16 27 26 22
29 5 16 27 28 29
30 6 16 27 28 30
31 7 17 16 27 26
32 8 17 16 27 28
33 9 17 21 22 23
34 10 17 21 22 26
35 11 18 17 16 27
36 12 18 17 21 22
37 13 19 18 17 21
38 14 20 18 17 21
39 15 21 17 16 27
40 16 21 22 23 24
41 17 21 22 23 25
42 18 21 22 26 27
43 19 22 26 27 28
44 20 23 22 26 27
45 21 24 23 22 26
46 22 25 23 22 26
47 23 26 27 28 29
48 24 26 27 28 30
49 1 31 32 33 34
50 2 31 32 33 35
51 3 31 32 36 37
52 4 31 42 41 37
53 5 31 42 43 44
54 6 31 42 43 45
55 7 32 31 42 41
56 8 32 31 42 43
57 9 32 36 37 38
58 10 32 36 37 41
59 11 33 32 31 42
60 12 33 32 36 37
61 13 34 33 32 36
62 14 35 33 32 36
63 15 36 32 31 42
64 16 36 37 38 39
65 17 36 37 38 40
66 18 36 37 41 42
67 19 37 41 42 43
68 20 38 37 41 42
69 21 39 38 37 41
70 22 40 38 37 41
71 23 41 42 43 44
72 24 41 42 43 45
73 1 46 47 48 49
74 2 46 47 48 50
75 3 46 47 51 52
76 4 46 57 56 52
77 5 46 57 58 59
78 6 46 57 58 60
79 7 47 46 57 56
80 8 47 46 57 58
81 9 47 51 52 53
82 10 47 51 52 56
83 11 48 47 46 57
84 12 48 47 51 52
85 13 49 48 47 51
86 14 50 48 47 51
87 15 51 47 46 57
88 16 51 52 53 54
89 17 51 52 53 55
90 18 51 52 56 57
91 19 52 56 57 58
92 20 53 52 56 57
93 21 54 53 52 56
94 22 55 53 52 56
95 23 56 57 58 59
96 24 56 57 58 60

Impropers

1 1 2 1 3 6
2 2 2 3 6 1
3 3 2 6 1 3
4 4 12 1 11 13
5 5 12 11 13 1
6 6 12 13 1 11
7 7 3 2 4 5
8 8 3 4 5 2
9 9 3 5 2 4
10 10 7 6 8 11
11 11 7 8 11 6
12 12 7 11 6 8
13 13 8 7 9 10
14 14 8 9 10 7
15 15 8 10 7 9
16 16 13 12 14 15
17 17 13 14 15 12
18 18 13 15 12 14
19 1 17 16 18 21
20 2 17 18 21 16
21 3 17 21 16 18
22 4 27 16 26 28
23 5 27 26 28 16
24 6 27 28 16 26
25 7 18 17 19 20
26 8 18 19 20 17
27 9 18 20 17 19
28 10 22 21 23 26
29 11 22 23 26 21
30 12 22 26 21 23
31 13 23 22 24 25
32 14 23 24 25 22
33 15 23 25 22 24
34 16 28 27 29 30
35 17 28 29 30 27
36 18 28 30 27 29
37 1 32 31 33 36
38 2 32 33 36 31
39 3 32 36 31 33
40 4 42 31 41 43
41 5 42 41 43 31
42 6 42 43 31 41
43 7 33 32 34 35
44 8 33 34 35 32
45 9 33 35 32 34
46 10 37 36 38 41
47 11 37 38 41 36
48 12 37 41 36 38
49 13 38 37 39 40
50 14 38 39 40 37
51 15 38 40 37 39
52 16 43 42 44 45
53 17 43 44 45 42
54 18 43 45 42 44
55 1 47 46 48 51
56 2 47 48 51 46
57 3 47 51 46 48
58 4 57 46 56 58
59 5 57 56 58 46
60 6 57 58 46 56
61 7 48 47 49 50
62 8 48 49 50 47
63 9 48 50 47 49
64 10 52 51 53 56
65 11 52 53 56 51
66 12 52 56 51 53
67 13 53 52 54 55
68 14 53 54 55 52
69 15 53 55 52 54
70 16 58 57 59 60
71 17 58 59 60 57
72 18 58 60 57 59
